<VTKFile type="PolyData" version="1.0" byte_order="LittleEndian" header_type="UInt64">
  <PolyData>
    <Piece NumberOfPoints="10201" NumberOfVerts="0" NumberOfLines="0" NumberOfStrips="0" NumberOfPolys="10000">
      <PointData>
        <DataArray type="Float32" Name="zvalue" NumberOfComponents="1" format="ascii" RangeMin="0.1268892313880673" RangeMax="1.9449402927796056">
          1.940937812730232 1.9328297288341627 1.9311015761790467 1.9312487248118058 1.9449402927796056 1.9084268168405658
          1.9072603382871078 1.9106839128956596 1.902131121877239 1.8828129378292506 1.8752944983902162 1.8886116883906743
          1.8895383313799348 1.8762959822985992 1.8834464091284695 1.8783319859580991 1.8714415162386528 1.8625469211964194
          1.8624734891312322 1.8576329921512587 1.847456389793337 1.835257292656606 1.8357724439823329 1.8437369985172372
          1.8633290981681505 1.8416517809414832 1.8355954047372869 1.84304529088693 1.8271593753286015 1.8438954737432787
          1.8410810748475026 1.823485049296043 1.8421956333088427 1.8123877010057432 1.8249628543770697 1.837323550819037
          1.8106490869387553 1.8283353249525356 1.8217165998494556 1.810647392063926 1.8088529965597058 1.780343192866137
          1.787196980507782 1.78646439757314 1.7827943228848024 1.7994775319701737 1.7899688597037815 1.7945276817413514
          1.78451608248284 1.7760129864831098 1.803105276836701 1.757193538165653 1.7722920344515882 1.753048093734325
          1.7785381079715172 1.7513846435168379 1.7654755828341235 1.7377238781728028 1.744338906608748 1.750209919261243
          1.7354826998141812 1.700738900554032 1.769192311260541 1.7450720209476192 1.72650269175237 1.7242958023975417
          1.6886993018307364 1.7042567376346072 1.734486840446926 1.7205677544519633 1.7055971815945365 1.7174609493004283
          1.7127207913899776 1.7105136278402124 1.7001772840737985 1.6910608430935095 1.700782861525212 1.6869873435768727
          1.7230388740065206 1.7038258380633209 1.69504524963014 1.6853936143451689 1.6847512760431917 1.6494761580821413
          1.6910818553902345 1.6997430717357955 1.7042402920428839 1.6575416379101398 1.670879258803135 1.6578825632841467
          1.6838215900795057 1.6787223355482324 1.6798417143640005 1.6838409555302645 1.660317630884276 1.686185227576938
          1.679221856613539 1.654636681163535 1.6700850006801484 1.6681625520606977 1.656191050124892 1.939526533902717
          1.9225266492105682 1.9163570851528866 1.920110573347774 1.9107426217001866 1.9078386840297397 1.9045608273122339
          1.9066215636245702 1.8902413184663163 1.8777331594528945 1.888217533532515 1.8954546791346678 1.8923938125158097
          1.8797820763267348 1.879563800422718 1.8601790327421976 1.862874869291859 1.8561764808226147 1.8350566782956619
          1.8584820277786538 1.849781219757986 1.8483740112523317 1.8402238428495914 1.81889741876811 1.8186316406801561
          1.819033369792293 1.8200794233059818 1.840457484618731 1.808795095342113 1.8043496758138553 1.8355437657170395
          1.8407601956441662 1.768113016275314 1.8075849494962248 1.8162196608233674 1.795528547632443 1.8036322473832063
          1.8005082225284021 1.772316551938556 1.8022362365085054 1.7699736582562815 1.7788665853689614 1.7801026860628126
          1.7871502514316595 1.7888821070927754 1.7809530172948627 1.7814473898773457 1.7601772813798946 1.7587195860516984
          1.7671260698592672 1.7383920850306693 1.7660837563507934 1.7536108367948606 1.7449794100530547 1.7317569116236922
          1.7136796070501181 1.7264457247224119 1.7526845112783838 1.7098867610420008 1.7372331333883813 1.7210891214734727
          1.7179244851072164 1.7210574469455147 1.7368128216933747 1.722111266459511 1.705647357522488 1.7018526677593249
          1.7203679964560266 1.7012713339603833 1.723073728033663 1.7276296106160745 1.6663751084749474 1.693613295672346
          1.6948545334067853 1.699382510363088 1.7329585168307644 1.7067371960054953 1.6790175553120759 1.6820346501050896
          1.684495803469829 1.6909099689325582 1.7061847197346434 1.6898465783301917 1.681414059137273 1.688307914070477
          1.6828892251254903 1.656951310098818 1.672264100622541 1.653035676904764 1.6782459707870276 1.6487151015979613
          1.6799609342907762 1.635979906541936 1.670633276533438 1.6507156292983238 1.653276368301228 1.6644828183539457
          1.6443820438624221 1.6461204902060758 1.665307396412392 1.6415318105483432 1.882632350845916 1.8982889219113674
          1.8725233203654956 1.8812512988778982 1.8969474015204129 1.877328034215598 1.8724216209083497 1.8767715555820117
          1.8694082125800793 1.8572322319275838 1.849222554965084 1.8828164011826047 1.8492782255662945 1.8676600005845594
          1.8578306165633878 1.848695803117594 1.846301483475019 1.8333045725058157 1.8185208707426554 1.829619268961732
          1.8270540653245608 1.8217292842503132 1.8259962083049939 1.8061991510034159 1.836357084389174 1.8205768875742958
          1.8028059059686414 1.788417892184855 1.813731455249346 1.7916618915304945 1.8143962856526916 1.8264638668428095
          1.7802841372716738 1.7880696006720807 1.7879561328816176 1.8068217988697752 1.7751735910588424 1.79834334563278
          1.7778334717369264 1.785629831175353 1.8036117044844409 1.7690429568568604 1.7619901021432542 1.7697121611379316
          1.7641695782588993 1.7461343377575351 1.7717893919128422 1.7529425220356778 1.739644341448999 1.7677584886158704
          1.7570372339198503 1.7277365290772027 1.7221841948029726 1.7277698887036061 1.7439887062692458 1.7288817267353762
          1.73909429642961 1.7281052505426175 1.7093980186714681 1.7194292261625546 1.7174379294913318 1.69878653648529
          1.690962489839075 1.7020704084622609 1.7042590929703187 1.687556544298845 1.7010507532453742 1.7173815248628792
          1.697053350012358 1.6964512213117158 1.7050668204031627 1.716533955911739 1.686650868039145 1.7067486074343479
          1.6714678221491763 1.6847143185960871 1.7022926168956052 1.685949580546303 1.6934640572029465 1.6589355439815179
          1.6985966603966685 1.679036805676758 1.6634737290685746 1.632649921221254 1.6523657826989206 1.6643012528682022
          1.6686609667771113 1.6462285818273144 1.6513278196868149 1.6668817634433437 1.6390063478583252 1.6635152554311374
          1.6305404135312682 1.6575214132853378 1.6423847980386441 1.64416626418822 1.656109562716399 1.6519402141639552
          1.6443761714556904 1.6472263203383826 1.6376187941657445 1.8934320495090728 1.89334177672593 1.8872848485518972
          1.878975601348147 1.866781131596556 1.8630098565458486 1.8696422181650059 1.857185460679389 1.8538669644566654
          1.860817847945039 1.8510218118860577 1.8705124912090736 1.8591876023967198 1.8424841391014153 1.8596597383627242
          1.8197919791138442 1.845343994995133 1.8238799360711389 1.8194114822180782 1.8601327359272848 1.827399656608916
          1.8011532669658117 1.8007831878690972 1.8002058257777644 1.8288260738736917 1.7911517740901974 1.8153244708739746
          1.785517427269819 1.793002319667119 1.8049769169416567 1.7861138537249661 1.773033568564575 1.7910371995836796
          1.8086698396507184 1.7603590590496927 1.7851333032763643 1.767174653152361 1.748078221693723 1.759344669449595
          1.7509783778368875 1.7721064125541037 1.732261436619598 1.769734292084459 1.7446967659920618 1.7399632292831546
          1.7298756399715602 1.735515069474197 1.7288068281013573 1.7360381242959302 1.7461053603864747 1.736121502038364
          1.7366583844407009 1.7167533186660138 1.7285877032031172 1.7193286488247954 1.7083203780598226 1.7133463936229603
          1.7255241142351812 1.70795974581516 1.7070935788737627 1.6906837942154305 1.6957763659382894 1.7024920286764766
          1.676073972393505 1.726522195352649 1.7055151513225366 1.685839986161049 1.682190931421781 1.669502172601257
          1.6522521740940543 1.6743838611571014 1.6816787782928868 1.6929680442883897 1.6635269109154032 1.6664142047087591
          1.635024208613847 1.6482993345004797 1.6385832350396814 1.6497929258848851 1.649710926409295 1.657631953203001
          1.6561461679218938 1.6667196984563435 1.677273944269753 1.6329848146425112 1.653027721359518 1.6467855246491103
          1.6327822227042232 1.641531643244833 1.6224960618420785 1.6139891534236321 1.6480303212920226 1.6322477623788896
          1.6198562479328429 1.6023933803225836 1.632250978634509 1.6334156173499377 1.622421821078659 1.631630208381694
          1.6455354240078828 1.5998668421737503 1.8824009757011657 1.864757400845506 1.8923911901165906 1.8740535303556
          1.8697553729098848 1.8676945640251723 1.845436502562087 1.8654347233664785 1.8565841238420804 1.8349401071336282
          1.830500521108761 1.8437640216869409 1.8201375257921186 1.8168421870960876 1.8277102179348692 1.8255801211411298
          1.8177686756954876 1.8027601374531737 1.8035224129044205 1.814377254902981 1.8120525330946053 1.810156015505514
          1.8214121928559 1.799892181640789 1.787718612757106 1.7756684671974396 1.7758367403491884 1.784589692001955
          1.7814152866664976 1.7740275912709667 1.7652826598141862 1.7661900004367532 1.773589630993492 1.775203478734063
          1.764649979840031 1.7350917161187795 1.7478900080234991 1.763283147476806 1.7347747660919082 1.754365464099218
          1.745498475796239 1.7485621312856192 1.7281744808281871 1.7342643874924382 1.7444011900911036 1.7240649769920482
          1.7316515176401277 1.735005568665122 1.7244900296266121 1.7263533393778674 1.7210463013047002 1.7108865717282624
          1.730721928115962 1.7375686216903024 1.6873386252341755 1.7005724036122378 1.667698312077147 1.6745062234993768
          1.7086568852046853 1.7108415358153564 1.6797957817296392 1.7072183747029008 1.6839576236881613 1.6580950436955701
          1.6782779668374013 1.6675476050347673 1.6595156732565108 1.6682084980266443 1.6498609156589292 1.6628379955806527
          1.6660310581789999 1.6683264967580314 1.6747306528466694 1.645480739720414 1.6579958071122287 1.6720822132814097
          1.6519102306512345 1.6469833715912987 1.6299062076996227 1.6425492088474736 1.6187669911061024 1.642741776039898
          1.6690189149612285 1.6667545306339435 1.6203326927118376 1.6362743074397965 1.6436920509447954 1.6171175592669123
          1.5885365701828953 1.597247064699472 1.6181295893404566 1.5895862576934192 1.5981992675235945 1.6355026585270362
          1.6214525146975214 1.6114265688163714 1.6213235998149087 1.6172336565566383 1.6094470690083897 1.611959658259282
          1.6252007594748892 1.864362783913147 1.8634937770350495 1.8508085784741963 1.852548304305163 1.8525400307704072
          1.8422373339022433 1.8437627607196292 1.8299499501033802 1.8473274661083556 1.83725519188679 1.8350215457998575
          1.8239861532354518 1.8245169533796088 1.829585684786444 1.8087162351754063 1.798067497593306 1.812091179634332
          1.7955627692171894 1.783414123840352 1.7866920886756248 1.7832233886201894 1.8002797927136216 1.7868582717713957
          1.7876422121191973 1.776596574549809 1.7788268629675081 1.76018337036965 1.775740719597657 1.7616802385766779
          1.7620642750566682 1.7694678095836085 1.7408648364340034 1.7546230426284597 1.7509148959750427 1.7672766204671644
          1.7489970236510761 1.7358546224884788 1.7403328577309176 1.7334494139664502 1.748767432412366 1.742505478078502
          1.7388496703367462 1.7219836058941398 1.7330412386294605 1.6970085432548663 1.7220423109813492 1.7247025877189455
          1.683502218118011 1.7322800761692307 1.690637622659892 1.680786801890502 1.7199264710200393 1.7064807770901909
          1.6979375028956454 1.6665793120708772 1.6783472760377998 1.7053631405674061 1.6606339588620203 1.727461689170246
          1.6859217436464353 1.6556085133167788 1.675381763058224 1.6475896123597409 1.6686405488116907 1.653865935205272
          1.6810339366410256 1.6685960915283498 1.636671663058805 1.6552880970970167 1.6581266952671667 1.6576848925486287
          1.660344282079686 1.6544979223633531 1.6547192940618844 1.624292524971636 1.640763235641852 1.6197926096233772
          1.6129251834423006 1.6317843107274794 1.6391634690842727 1.5987022574697691 1.6363742186651213 1.593961545724001
          1.6021088799063583 1.6209647081311231 1.603616127405445 1.6521003649868102 1.5764051103361423 1.5939799845485128
          1.6102621669423178 1.582051937979655 1.6010923814832394 1.5976213591264126 1.6033855518243074 1.6466378754768323
          1.6053932436561487 1.572288199470132 1.5766107586775024 1.6207691409377476 1.607365586656872 1.5952883515798466
          1.8531568846190345 1.8525124409376514 1.8427454944271282 1.8478501585198046 1.8430529580354473 1.839628950095792
          1.8099878079255571 1.8250819766776365 1.809168750974894 1.8008977542997302 1.8163929239019965 1.8254724141657974
          1.7954518983199836 1.8217210749802841 1.8180375419950783 1.817715069993195 1.7915197813611294 1.7837429210038687
          1.7793179663442076 1.776004523593204 1.7724370951686388 1.751876870925181 1.7526546549368542 1.7724216678191287
          1.7504580459762977 1.7399511385712676 1.757431570460095 1.7471230143975407 1.7368615050668892 1.7544350841983596
          1.7449898004919282 1.7327481481397107 1.751263759020705 1.732760712428806 1.7434919442120054 1.7401545045133584
          1.7459621154806624 1.7071753177867641 1.7015341615073292 1.73538089810205 1.7281776052298143 1.6925235348903682
          1.7020278489874816 1.6972893988632696 1.7180421161353532 1.6961860183639836 1.7229314091351993 1.6768989513319044
          1.6989370296622974 1.6957219019939316 1.6745252921871205 1.6828897172926267 1.6571739455742196 1.6644356936539748
          1.653271179183854 1.6761871767730399 1.670602121155376 1.6588255436388673 1.6492006703800668 1.6612437054812352
          1.6251984526771557 1.6489443098117915 1.64963063838141 1.6376226409072063 1.6704346049593053 1.6241166925805801
          1.649763049185506 1.663466328880755 1.6543578069036728 1.62602707702542 1.629841807709597 1.6339635347937933
          1.6489020564788428 1.614436403652954 1.617529426768993 1.5907149528693714 1.6310660970427204 1.6074094241301091
          1.638070574480623 1.619895912609493 1.6078362782992666 1.5861390998433815 1.6096410176918408 1.5933795637541
          1.5819510286008303 1.5876906961391934 1.5840778159580085 1.5916555125390763 1.5937156936722223 1.5823414567552097
          1.5837285228525906 1.5784670930708458 1.5950513911085717 1.6224147539561686 1.5867769963701155 1.5902146138504176
          1.5925094009000855 1.5876052647021177 1.6134686183018836 1.6071700616755191 1.5706766569903257 1.8321383473982833
          1.837223779077 1.8263659909013814 1.8196388629075275 1.8128737516609184 1.8206027538848868 1.806401776289528
          1.817326641767376 1.8044219680198608 1.8134461891773466 1.806083667935064 1.7789881503672298 1.7941771074588986
          1.7759568725335533 1.8036475667938336 1.7836442608651635 1.8049261821597822 1.7903168087883505 1.7691589813525503
          1.7671206493561227 1.7471852763550706 1.7439641676427442 1.7582449766874662 1.748216802031874 1.7597656884061017
          1.756975727273716 1.749972914261842 1.7295912252231576 1.7335754228311833 1.7203571334441239 1.7428285573764226
          1.7160790795277736 1.732805506123273 1.7339386913519368 1.6829055394870127 1.7214778902226193 1.7045622294081393
          1.688745958793035 1.7171236817178859 1.7075341193791027 1.7008313657631142 1.697472844668984 1.6940146440778616
          1.6928539110503744 1.684063679511924 1.703416839137947 1.6764176007337068 1.679438340378581 1.688263340206958
          1.6672826464529944 1.6627688146565727 1.6819032356064196 1.6623396577397203 1.639217273153617 1.642982488693061
          1.6661349703031663 1.6626711120162136 1.6541719569396371 1.649162537310567 1.6362820865121561 1.6416420551700928
          1.648905392611509 1.6332436163193789 1.6132231990884005 1.6602953206474984 1.6491713471880982 1.6278163877991023
          1.6300806128672085 1.6329794963363682 1.614765395077584 1.633041226316135 1.6167496317894723 1.6033602988480877
          1.6206532683453305 1.6480844182509122 1.5913708284965373 1.6098176018175718 1.5986954067817105 1.5981469075083672
          1.605903616605911 1.6164756478473687 1.5708415524616843 1.5987856007801435 1.5662221825766194 1.5948944622726315
          1.6146213364455448 1.5610988817738294 1.5654379704752406 1.5797496354188472 1.5807961542205358 1.594611358742354
          1.561271708141899 1.5675193406353658 1.5600913566927004 1.5755285437554627 1.5928833588940312 1.5838731787463163
          1.578111084198704 1.5844549610518566 1.5880265220725793 1.6011143380125936 1.839764181209898 1.8325189485374391
          1.802622092337743 1.819152990899853 1.8294806287517553 1.798398029397211 1.799298031830353 1.791008494619036
          1.796391438546176 1.7768997187582827 1.7860755923749008 1.7799455822016825 1.7786658743624155 1.7743785678448938
          1.7606981748337298 1.7607839532712501 1.756313149435996 1.7569122380681697 1.7730095083109911 1.7577045727762763
          1.7551104827829336 1.7533506562428416 1.7602285816636472 1.7671198515630528 1.7335663380699684 1.7258207788034283
          1.7391135393303252 1.7323584234326175 1.7239727519219619 1.7150581199855228 1.7279435082429473 1.7020045189593496
          1.7270425267652745 1.7096423498469298 1.7289379591042737 1.7042927850495904 1.703420006743678 1.69354325150959
          1.69911344902608 1.6781835220026178 1.6755209654277876 1.6596381962449105 1.6688425481538134 1.674625876454205
          1.6711914913502561 1.672533647335807 1.6882473928981017 1.6614096839388885 1.658221568083933 1.6254753102131614
          1.655866079354042 1.6556637790860476 1.647405087286795 1.6298471512508905 1.6493408619004697 1.6355467317387495
          1.6271259602943768 1.648760616441154 1.6282923657849244 1.6339840551709999 1.6149043431959913 1.612487600452764
          1.632037847250131 1.6090880405060741 1.6153947990569848 1.6196308160254924 1.6390174564435946 1.594581490287103
          1.628456838827152 1.6047129640196856 1.6254639811252554 1.568097801390693 1.5803119753015291 1.6088355404927877
          1.5960557451647628 1.5724737369621637 1.5741964968983633 1.5888090666609143 1.5935207331030485 1.5833812596060237
          1.5431946151303662 1.55221193254065 1.573733381471376 1.5414350107306183 1.5738299271590939 1.5616666866015603
          1.5749583941589431 1.5413810857766694 1.5635605240451922 1.5660182614993938 1.540760536217227 1.5534831853123274
          1.5575865847922004 1.5608087844591738 1.5572655477918276 1.5593667189415885 1.5960833041715412 1.5818400223428222
          1.5578342897483368 1.5723734375610905 1.5601583685564133 1.8083605937212348 1.7845457376020366 1.8086877006255324
          1.7903854735889355 1.7674589286963482 1.7954013472681507 1.7973002076874018 1.7847027364317363 1.7753859829156675
          1.7608713756581165 1.7756644016429355 1.7603543735909128 1.7514978732722029 1.7747539048433676 1.7583212859539044
          1.7602240746967532 1.7343009841799817 1.7458454286160323 1.729600950956402 1.7144097717001812 1.754652354264289
          1.7224334384430753 1.7118612167384994 1.7016926004217896 1.7152261535629623 1.7297353322813276 1.7017537669435896
          1.7179286810979189 1.716113972896581 1.6989147526215538 1.7005774585656723 1.6896037636388177 1.713236375073418
          1.703665328221427 1.6859457727494445 1.689201335984879 1.6900175097419068 1.6958858490717512 1.6875736589600956
          1.6742607829034466 1.6780545842035948 1.6658799512304767 1.6469279188488652 1.6393263630648038 1.6897273998638418
          1.6283699997515682 1.6656490693656842 1.6411898264961116 1.6313282024959288 1.6569352949974365 1.6197396234562687
          1.6530011349472147 1.6269341949790477 1.6406322480068325 1.6367193674209943 1.619963093710904 1.6471661799940145
          1.6312911581219787 1.6464856296797252 1.6116576559639182 1.6066919685631165 1.6297109194240946 1.6394979183740843
          1.6081958604925326 1.5879831621649163 1.6014673864979678 1.5909626435533186 1.583094170315819 1.6155933792091024
          1.5467034214210844 1.5605225845970623 1.5825250888790265 1.5976833653538487 1.5841424250546954 1.555016908420174
          1.5727689398189626 1.5580596885817979 1.5875033265294758 1.5780925836119615 1.5934415353141844 1.5409566920181945
          1.5630612770256076 1.56248291025885 1.5420516520847967 1.5328427045943684 1.541659350927194 1.5643706746737887
          1.5271073830107378 1.5571590696549045 1.5574339594799025 1.5252569239182057 1.5562400546620903 1.5461141670573333
          1.5588993208833044 1.5573737107668708 1.5634912534240375 1.5419412438898394 1.5610142731791001 1.554545615637854
          1.5742917117714186 1.5789238922723594 1.798812664583698 1.7925852679176888 1.7990336709668446 1.8080522515414996
          1.7845240800055395 1.777419891341577 1.7828828625705053 1.755522023260382 1.760395782734911 1.7565712569717837
          1.7612427711348004 1.7672094045070637 1.7490507016815589 1.7379916651737106 1.737696072243815 1.7497524548363568
          1.7406362752579048 1.7344697031446195 1.7413907579361754 1.7263743794302417 1.719597298314082 1.7063478939707817
          1.7064958563890562 1.7370615353906782 1.7027832121586852 1.6833252192365444 1.690036490363409 1.6956389158818561
          1.6765487205380638 1.6942053121886416 1.6786479346707344 1.6683105802371132 1.6785317027136704 1.6603602296715787
          1.6790588722198585 1.6687977349300451 1.6870366160073984 1.6511885285327017 1.659868520442486 1.6650818263278486
          1.6524289438881308 1.6506592160089448 1.6420749282365252 1.657703184727313 1.6400589307305418 1.657649669961336
          1.6243583090967109 1.610665974036679 1.6144044455147797 1.6443308259295755 1.6072471764802603 1.6188379254636336
          1.6253340220980659 1.6345496704500984 1.5943569739687156 1.6211494660213557 1.5986420057090396 1.599880258593095
          1.5875420984381594 1.5804995531235846 1.5897136694119844 1.595146764364519 1.592340009728951 1.5876974706681561
          1.579826440059476 1.5831204583667977 1.5858539384687933 1.579740632620055 1.5868974127290985 1.5698371303767709
          1.5783755496059755 1.5542742328392902 1.5446846521121635 1.5805228149132655 1.5985091603363546 1.5777627371222829
          1.564499440374964 1.5663856693907574 1.5524168136612098 1.5331110294508603 1.5539694930293597 1.5386950558136039
          1.5324592195711364 1.5298132909305295 1.533924063573269 1.5501299672331044 1.5308823387074024 1.5264154487187764
          1.5335782879320559 1.5379149182060814 1.5075893869484138 1.5541061308885618 1.5438530789007534 1.5231432714089537
          1.5522479436637118 1.5373262857617473 1.5385419045322115 1.559805270805613 1.5205538834619934 1.5452209859661383
          1.5722328788281927 1.7725347072750097 1.782749590864246 1.756426699651443 1.7524709120538562 1.7573382383488623
          1.7593681370019199 1.761869079913355 1.7492961118792265 1.7627586506650508 1.762034694206782 1.7135395389683705
          1.7478264126264709 1.717963917634906 1.7415542737685867 1.719339757193702 1.7321100192899996 1.720602630090878
          1.7369628412461493 1.7100819697292144 1.6991589473952118 1.719105465431122 1.7024298820568615 1.6770037398676443
          1.686390926680284 1.7004827684577002 1.6915298599793411 1.7207885834458505 1.6700827068124628 1.6699250433537824
          1.6722882124147793 1.6943730820962946 1.6830051804546469 1.6784757946064606 1.6356466111854555 1.6509332871947018
          1.6661023825333603 1.6480168297528142 1.655307854465076 1.6517421985885818 1.6416045420122893 1.6269131184404817
          1.6479211633062611 1.6494942203657919 1.615484388794711 1.623409718172419 1.6327165731782032 1.6227915701507494
          1.602989094463902 1.6117287296837444 1.631939003854871 1.6436946911596333 1.595257665647063 1.611013596813318
          1.6159777633702366 1.6126428285724785 1.6131639411025263 1.5835575327337843 1.606337195656331 1.5669763825603267
          1.575714217781539 1.59477080276961 1.5898083643711873 1.5699290297854624 1.548496951778034 1.5640931693850926
          1.566799425912964 1.574685881605621 1.568760457727371 1.5642411027978809 1.565228223183448 1.5618668686232065
          1.5841817393254325 1.5525917480246847 1.5345223491907787 1.535768908185193 1.5356120750137032 1.5364127880495
          1.5332590570754288 1.533107458856738 1.5418055578516587 1.541384203492463 1.5293639110732897 1.5122708244250915
          1.5145105781339103 1.5176030777141045 1.5086854427405756 1.529833658661715 1.505557607926524 1.5276549556911925
          1.4950188562383686 1.5069090493986699 1.5334971118699794 1.5104097120842297 1.5448237714452326 1.5246789204483118
          1.5447358452413102 1.5092024982213708 1.5389043852945785 1.5388467490761402 1.5327538005203358 1.5399826894022817
          1.7422305819601371 1.7680821486650882 1.7763047714464502 1.7711530792947916 1.7541914233386573 1.7565021400029064
          1.7482323911441005 1.7524654532132171 1.7378182947603869 1.7220225715672195 1.7261815292841278 1.730620338090754
          1.697290694892306 1.750756235448781 1.7188822900963185 1.7064890756804165 1.7084061430497086 1.7059869769917118
          1.687264929230011 1.7023283173281878 1.7031021649121778 1.668281153870861 1.6978435360753399 1.7006620898731153
          1.6635895948799906 1.6778998444543405 1.686742543913069 1.6225727504392249 1.6445325635723242 1.6582241746183806
          1.6618815154524236 1.6322278385720597 1.6355788908300304 1.64263611008316 1.6737457913790346 1.6466256090411022
          1.6222044338886408 1.6235132396793264 1.6041089844754994 1.6160126759735423 1.6222090855373996 1.6256389474759154
          1.6039895822939092 1.6199795162773603 1.6230126022546465 1.5902283903087997 1.5865062104956864 1.587256785502808
          1.589712154626623 1.5887743665373735 1.5844035582070426 1.596448397401114 1.595350335669987 1.6022779414642325
          1.5778889569909051 1.574614162408758 1.5796105850031845 1.6121805556622444 1.5534148768579956 1.5887002432995225
          1.5611301623316762 1.5839949868848535 1.5534964839740095 1.526070858515812 1.5386375180000995 1.5449700651988096
          1.5212923452026685 1.5635030641058045 1.5372926229293535 1.550123736591292 1.5410768429008093 1.524868813067408
          1.5199703748771163 1.5487349314561671 1.5118078805896824 1.5453526146332575 1.4997645603535483 1.5461237364669798
          1.5241894026277703 1.4946141892333256 1.5195248475114211 1.4967445690071357 1.5203959718268907 1.4762640900464323
          1.5215417679657226 1.4914082568576528 1.5182770706627238 1.4835549219001432 1.481746762179312 1.5013424593584528
          1.5113341379793348 1.5135986217463417 1.4959359199447475 1.5049128667149843 1.5086151257869027 1.5198772187110199
          1.5312676293010377 1.5078717735895177 1.504862036274216 1.5330184577043948 1.5277129378829206 1.7590587621435774
          1.7464221463090697 1.74795064118806 1.7508455228983288 1.7331180901437184 1.7345783525385587 1.7378888530380319
          1.7268838737363077 1.7186013488852647 1.717293662254709 1.719351125370714 1.7038258878528694 1.7143780443328986
          1.7062201808193194 1.6711718631684498 1.7039343704485257 1.6827377716382084 1.6678702579679643 1.6929346917793597
          1.6894962010597205 1.6774444177308734 1.6686338582159954 1.6726835329540197 1.6671938223542053 1.6637202711345185
          1.6452556792058597 1.6367298431108512 1.6529924868907215 1.6699382491262642 1.6485125336962942 1.6398192878894255
          1.6454937371568326 1.6369183843008455 1.6223422793671045 1.637272700570467 1.641850111722173 1.6048719389472885
          1.6225848236498366 1.609078319895386 1.604684817735287 1.591928414359122 1.6123666784755442 1.6094545475496422
          1.6104058497459066 1.6048713136007282 1.5926801320760489 1.5929138031660426 1.600514022214829 1.5886238411308586
          1.582531018847682 1.5745714523192416 1.5842869910017403 1.5685981851681707 1.5775866375066525 1.5371321079042943
          1.5790710613323389 1.5591074888167522 1.5592711986639094 1.5478190477675056 1.552193649791343 1.5665403772418978
          1.5727832007096536 1.54503181597526 1.5048128870402102 1.5543042529799083 1.529548856525931 1.5273507031633318
          1.5283665082489544 1.5298706703348879 1.5298243950205819 1.5366519861163024 1.5257886340542282 1.5210596508887058
          1.5360831963817976 1.4890483341086818 1.4840862791420368 1.4923110218533424 1.5004127473504496 1.4930751119544257
          1.4784598505461934 1.5122644299199282 1.4834741768592723 1.4831395524493511 1.4827995876104314 1.4786591131825522
          1.4704082470187876 1.4702083844650227 1.4796561066979101 1.4816545246242947 1.4842539850254108 1.491338401001492
          1.4689374528734471 1.4959464131460811 1.5012586959811764 1.5058192187669517 1.4688263452155166 1.5328544164507154
          1.5315559709357431 1.5023468793660975 1.494284777343462 1.5165540707560623 1.7376956773944103 1.719218185225781
          1.7290361470858668 1.73244716494956 1.7137908372351145 1.7138405787658297 1.725826831524874 1.728781122529246
          1.6940913559204807 1.7040726166585947 1.7057988217670446 1.6971361572205332 1.6726479179519829 1.6886254609747808
          1.6852678023874712 1.6741710059917858 1.6535349917350086 1.660164106676977 1.6574382147191713 1.6480103808248265
          1.6644403776688252 1.6485709999128024 1.6462071123406559 1.6734658152427078 1.6439573172472706 1.635333928079922
          1.6415637237499505 1.6230730933103588 1.6169402330707245 1.6198105120825854 1.6033760740117635 1.6180160719366814